
Linearized model: Predictions were generated on 13-Dec-2024 at 09:21:17 using FAST (v8.16.00a-bjj, 27-Jul-2016), compiled as a DLL S-Function for Simulink as a 64-bit application using single precision
 linked with  NWTC Subroutine Library (v2.11.02, 13-Mar-2017); ElastoDyn (v1.04.00a-bjj, 26-Jul-2016); InflowWind (v3.03.00, 26-Jul-2016); AeroDyn (v15.04.01, 13-Dec-2016); ServoDyn (v1.06.00a-bjj, 26-Jul-2016)

Description from the FAST input file: Created 13-Dec-2024 09:21:17.

Simulation information:
   Simulation time:                   157.8080 s
   Rotor Speed:                         0.7970 rad/s
   Azimuth:                             0.1074 rad
   Number of continuous states:        30
   Number of discrete states:           0
   Number of constraint states:         0
   Number of inputs:                    9
   Number of outputs:                  39
   Jacobians included in this file?    No

Order of continuous states:
   Row/Column Operating Point                     Rotating Frame? Description
   ---------- ---------------                     --------------- -----------
          1    2.525E-01                                 F        ED 1st tower fore-aft bending mode DOF (internal DOF index = DOF_TFA1), m
          2    1.191E-01                                 F        ED 1st tower side-to-side bending mode DOF (internal DOF index = DOF_TSS1), m
          3   -4.785E-04                                 F        ED 2nd tower fore-aft bending mode DOF (internal DOF index = DOF_TFA2), m
          4    1.367E-03                                 F        ED 2nd tower side-to-side bending mode DOF (internal DOF index = DOF_TSS2), m
          5    4.797E+00                                 F        ED Variable speed generator DOF (internal DOF index = DOF_GeAz), rad
          6    2.305E-02                                 F        ED Drivetrain rotational-flexibility DOF (internal DOF index = DOF_DrTr), rad
          7    7.192E-01                                 T        ED 1st flapwise bending-mode DOF of blade 1 (internal DOF index = DOF_BF(1,1)), m
          8    7.254E-01                                 T        ED 1st flapwise bending-mode DOF of blade 2 (internal DOF index = DOF_BF(2,1)), m
          9    2.712E-01                                 T        ED 1st flapwise bending-mode DOF of blade 3 (internal DOF index = DOF_BF(3,1)), m
         10    3.949E-02                                 T        ED 1st edgewise bending-mode DOF of blade 1 (internal DOF index = DOF_BE(1,1)), m
         11   -6.492E-01                                 T        ED 1st edgewise bending-mode DOF of blade 2 (internal DOF index = DOF_BE(2,1)), m
         12    1.114E+00                                 T        ED 1st edgewise bending-mode DOF of blade 3 (internal DOF index = DOF_BE(3,1)), m
         13   -8.821E-01                                 T        ED 2nd flapwise bending-mode DOF of blade 1 (internal DOF index = DOF_BF(1,2)), m
         14   -1.122E+00                                 T        ED 2nd flapwise bending-mode DOF of blade 2 (internal DOF index = DOF_BF(2,2)), m
         15   -6.391E-01                                 T        ED 2nd flapwise bending-mode DOF of blade 3 (internal DOF index = DOF_BF(3,2)), m
         16    1.944E-04                                 F        ED First time derivative of 1st tower fore-aft bending mode DOF (internal DOF index = DOF_TFA1), m/s
         17    1.961E-03                                 F        ED First time derivative of 1st tower side-to-side bending mode DOF (internal DOF index = DOF_TSS1), m/s
         18   -1.167E-06                                 F        ED First time derivative of 2nd tower fore-aft bending mode DOF (internal DOF index = DOF_TFA2), m/s
         19    4.315E-06                                 F        ED First time derivative of 2nd tower side-to-side bending mode DOF (internal DOF index = DOF_TSS2), m/s
         20    7.970E-01                                 F        ED First time derivative of Variable speed generator DOF (internal DOF index = DOF_GeAz), rad/s
         21   -8.068E-07                                 F        ED First time derivative of Drivetrain rotational-flexibility DOF (internal DOF index = DOF_DrTr), rad/s
         22    2.397E-01                                 T        ED First time derivative of 1st flapwise bending-mode DOF of blade 1 (internal DOF index = DOF_BF(1,1)), m/s
         23   -2.319E-01                                 T        ED First time derivative of 1st flapwise bending-mode DOF of blade 2 (internal DOF index = DOF_BF(2,1)), m/s
         24   -2.263E-02                                 T        ED First time derivative of 1st flapwise bending-mode DOF of blade 3 (internal DOF index = DOF_BF(3,1)), m/s
         25   -8.204E-01                                 T        ED First time derivative of 1st edgewise bending-mode DOF of blade 1 (internal DOF index = DOF_BE(1,1)), m/s
         26    4.982E-01                                 T        ED First time derivative of 1st edgewise bending-mode DOF of blade 2 (internal DOF index = DOF_BE(2,1)), m/s
         27    3.172E-01                                 T        ED First time derivative of 1st edgewise bending-mode DOF of blade 3 (internal DOF index = DOF_BE(3,1)), m/s
         28   -2.208E-01                                 T        ED First time derivative of 2nd flapwise bending-mode DOF of blade 1 (internal DOF index = DOF_BF(1,2)), m/s
         29    1.025E-01                                 T        ED First time derivative of 2nd flapwise bending-mode DOF of blade 2 (internal DOF index = DOF_BF(2,2)), m/s
         30    1.196E-01                                 T        ED First time derivative of 2nd flapwise bending-mode DOF of blade 3 (internal DOF index = DOF_BF(3,2)), m/s

Order of continuous state derivatives:
   Row/Column Operating Point                     Rotating Frame? Description
   ---------- ---------------                     --------------- -----------
          1    1.944E-04                                 F        First time derivative of ED 1st tower fore-aft bending mode DOF (internal DOF index = DOF_TFA1), m/s
          2    1.961E-03                                 F        First time derivative of ED 1st tower side-to-side bending mode DOF (internal DOF index = DOF_TSS1), m/s
          3   -1.167E-06                                 F        First time derivative of ED 2nd tower fore-aft bending mode DOF (internal DOF index = DOF_TFA2), m/s
          4    4.315E-06                                 F        First time derivative of ED 2nd tower side-to-side bending mode DOF (internal DOF index = DOF_TSS2), m/s
          5    7.970E-01                                 F        First time derivative of ED Variable speed generator DOF (internal DOF index = DOF_GeAz), rad/s
          6   -8.068E-07                                 F        First time derivative of ED Drivetrain rotational-flexibility DOF (internal DOF index = DOF_DrTr), rad/s
          7    2.397E-01                                 T        First time derivative of ED 1st flapwise bending-mode DOF of blade 1 (internal DOF index = DOF_BF(1,1)), m/s
          8   -2.319E-01                                 T        First time derivative of ED 1st flapwise bending-mode DOF of blade 2 (internal DOF index = DOF_BF(2,1)), m/s
          9   -2.263E-02                                 T        First time derivative of ED 1st flapwise bending-mode DOF of blade 3 (internal DOF index = DOF_BF(3,1)), m/s
         10   -8.204E-01                                 T        First time derivative of ED 1st edgewise bending-mode DOF of blade 1 (internal DOF index = DOF_BE(1,1)), m/s
         11    4.982E-01                                 T        First time derivative of ED 1st edgewise bending-mode DOF of blade 2 (internal DOF index = DOF_BE(2,1)), m/s
         12    3.172E-01                                 T        First time derivative of ED 1st edgewise bending-mode DOF of blade 3 (internal DOF index = DOF_BE(3,1)), m/s
         13   -2.208E-01                                 T        First time derivative of ED 2nd flapwise bending-mode DOF of blade 1 (internal DOF index = DOF_BF(1,2)), m/s
         14    1.025E-01                                 T        First time derivative of ED 2nd flapwise bending-mode DOF of blade 2 (internal DOF index = DOF_BF(2,2)), m/s
         15    1.196E-01                                 T        First time derivative of ED 2nd flapwise bending-mode DOF of blade 3 (internal DOF index = DOF_BF(3,2)), m/s
         16    4.419E-03                                 F        First time derivative of ED First time derivative of 1st tower fore-aft bending mode DOF (internal DOF index = DOF_TFA1), m/s/s
         17   -1.399E-02                                 F        First time derivative of ED First time derivative of 1st tower side-to-side bending mode DOF (internal DOF index = DOF_TSS1), m/s/s
         18   -5.591E-05                                 F        First time derivative of ED First time derivative of 2nd tower fore-aft bending mode DOF (internal DOF index = DOF_TFA2), m/s/s
         19   -1.701E-05                                 F        First time derivative of ED First time derivative of 2nd tower side-to-side bending mode DOF (internal DOF index = DOF_TSS2), m/s/s
         20    2.917E-04                                 F        First time derivative of ED First time derivative of Variable speed generator DOF (internal DOF index = DOF_GeAz), rad/s/s
         21   -1.636E-05                                 F        First time derivative of ED First time derivative of Drivetrain rotational-flexibility DOF (internal DOF index = DOF_DrTr), rad/s/s
         22   -9.036E-02                                 T        First time derivative of ED First time derivative of 1st flapwise bending-mode DOF of blade 1 (internal DOF index = DOF_BF(1,1)), m/s/s
         23   -8.680E-02                                 T        First time derivative of ED First time derivative of 1st flapwise bending-mode DOF of blade 2 (internal DOF index = DOF_BF(2,1)), m/s/s
         24    1.519E-01                                 T        First time derivative of ED First time derivative of 1st flapwise bending-mode DOF of blade 3 (internal DOF index = DOF_BF(3,1)), m/s/s
         25    9.461E-02                                 T        First time derivative of ED First time derivative of 1st edgewise bending-mode DOF of blade 1 (internal DOF index = DOF_BE(1,1)), m/s/s
         26    5.248E-01                                 T        First time derivative of ED First time derivative of 1st edgewise bending-mode DOF of blade 2 (internal DOF index = DOF_BE(2,1)), m/s/s
         27   -5.886E-01                                 T        First time derivative of ED First time derivative of 1st edgewise bending-mode DOF of blade 3 (internal DOF index = DOF_BE(3,1)), m/s/s
         28    5.289E-03                                 T        First time derivative of ED First time derivative of 2nd flapwise bending-mode DOF of blade 1 (internal DOF index = DOF_BF(1,2)), m/s/s
         29    1.533E-01                                 T        First time derivative of ED First time derivative of 2nd flapwise bending-mode DOF of blade 2 (internal DOF index = DOF_BF(2,2)), m/s/s
         30   -1.574E-01                                 T        First time derivative of ED First time derivative of 2nd flapwise bending-mode DOF of blade 3 (internal DOF index = DOF_BF(3,2)), m/s/s

Order of inputs:
     Column   Operating Point                     Rotating Frame? Description
   ---------- ---------------                     --------------- -----------
          1    2.500E+01                                 F        IfW Extended input: horizontal wind speed (steady/uniform wind), m/s
          2    0.000E+00                                 F        IfW Extended input: vertical power-law shear exponent, -
          3    0.000E+00                                 F        IfW Extended input: propagation direction, rad
          4    3.960E-01                                 T        ED Blade 1 pitch command, rad
          5    3.960E-01                                 T        ED Blade 2 pitch command, rad
          6    3.960E-01                                 T        ED Blade 3 pitch command, rad
          7    0.000E+00                                 F        ED Yaw moment, Nm
          8    2.000E+07                                 F        ED Generator torque, Nm
          9    3.960E-01                                 F        ED Extended input: collective blade-pitch command, rad

Order of outputs:
        Row   Operating Point                     Rotating Frame? Description
   ---------- ---------------                     --------------- -----------
          1    2.500E+01                                 F        IfW Wind1VelX, (m/s)
          2    0.000E+00                                 F        IfW Wind1VelY, (m/s)
          3    0.000E+00                                 F        IfW Wind1VelZ, (m/s)
          4    1.527E+04                                 F        SrvD GenPwr, (kW)
          5    2.000E+04                                 F        SrvD GenTq, (kN·m)
          6   -2.055E-01                                 T        ED OoPDefl1, (m)
          7   -7.545E-01                                 T        ED OoPDefl2, (m)
          8    1.300E-01                                 T        ED OoPDefl3, (m)
          9   -3.251E-02                                 T        ED IPDefl1, (m)
         10   -5.793E-01                                 T        ED IPDefl2, (m)
         11    1.055E+00                                 T        ED IPDefl3, (m)
         12    4.427E-03                                 F        ED NcIMUTAxs, (m/s^2)
         13    1.448E-02                                 F        ED NcIMUTAys, (m/s^2)
         14    6.014E-04                                 F        ED NcIMUTAzs, (m/s^2)
         15    1.422E+04                                 T        ED RootMOoP1, (kN·m)
         16    1.208E+04                                 T        ED RootMOoP2, (kN·m)
         17    1.831E+04                                 T        ED RootMOoP3, (kN·m)
         18    8.349E+03                                 T        ED RootMIP1, (kN·m)
         19    2.014E+04                                 T        ED RootMIP2, (kN·m)
         20   -1.078E+04                                 T        ED RootMIP3, (kN·m)
         21    1.634E+04                                 T        ED RootMFlp1, (kN·m)
         22    1.891E+04                                 T        ED RootMFlp2, (kN·m)
         23    1.274E+04                                 T        ED RootMFlp3, (kN·m)
         24    2.219E+03                                 T        ED RootMEdg1, (kN·m)
         25    1.392E+04                                 T        ED RootMEdg2, (kN·m)
         26   -1.701E+04                                 T        ED RootMEdg3, (kN·m)
         27    2.363E+04                                 F        ED TwrBsMxt, (kN·m)
         28    9.602E+04                                 F        ED TwrBsMyt, (kN·m)
         29   -7.584E+03                                 F        ED TwrBsMzt, (kN·m)
         30   -3.288E+03                                 F        ED LSSTipMya, (kN·m)
         31   -5.331E+03                                 F        ED LSSTipMza, (kN·m)
         32    7.611E+00                                 F        ED LSSTipVxa, (rpm)
         33    7.611E+00                                 F        ED GenSpeed, (rpm)
         34    2.269E+01                                 T        ED BlPitch1, (deg)
         35    6.154E+00                                 F        ED Azimuth, (deg)
         36    1.594E+04                                 F        ED RotPwr, (kW)
         37    1.104E+03                                 F        ED RotThrust, (kN)
         38    7.611E+00                                 F        ED RotSpeed, (rpm)
         39    2.000E+04                                 F        ED HSShftTq, (kN·m)


Linearized state matrices:

A: 30 x 30
    0.000E+00  0.000E+00  0.000E+00  0.000E+00  0.000E+00  0.000E+00  0.000E+00  0.000E+00  0.000E+00  0.000E+00  0.000E+00  0.000E+00  0.000E+00  0.000E+00  0.000E+00  1.000E+00  0.000E+00  0.000E+00  0.000E+00  0.000E+00  0.000E+00  0.000E+00  0.000E+00  0.000E+00  0.000E+00  0.000E+00  0.000E+00  0.000E+00  0.000E+00  0.000E+00
    0.000E+00  0.000E+00  0.000E+00  0.000E+00  0.000E+00  0.000E+00  0.000E+00  0.000E+00  0.000E+00  0.000E+00  0.000E+00  0.000E+00  0.000E+00  0.000E+00  0.000E+00  0.000E+00  1.000E+00  0.000E+00  0.000E+00  0.000E+00  0.000E+00  0.000E+00  0.000E+00  0.000E+00  0.000E+00  0.000E+00  0.000E+00  0.000E+00  0.000E+00  0.000E+00
    0.000E+00  0.000E+00  0.000E+00  0.000E+00  0.000E+00  0.000E+00  0.000E+00  0.000E+00  0.000E+00  0.000E+00  0.000E+00  0.000E+00  0.000E+00  0.000E+00  0.000E+00  0.000E+00  0.000E+00  1.000E+00  0.000E+00  0.000E+00  0.000E+00  0.000E+00  0.000E+00  0.000E+00  0.000E+00  0.000E+00  0.000E+00  0.000E+00  0.000E+00  0.000E+00
    0.000E+00  0.000E+00  0.000E+00  0.000E+00  0.000E+00  0.000E+00  0.000E+00  0.000E+00  0.000E+00  0.000E+00  0.000E+00  0.000E+00  0.000E+00  0.000E+00  0.000E+00  0.000E+00  0.000E+00  0.000E+00  1.000E+00  0.000E+00  0.000E+00  0.000E+00  0.000E+00  0.000E+00  0.000E+00  0.000E+00  0.000E+00  0.000E+00  0.000E+00  0.000E+00
    0.000E+00  0.000E+00  0.000E+00  0.000E+00  0.000E+00  0.000E+00  0.000E+00  0.000E+00  0.000E+00  0.000E+00  0.000E+00  0.000E+00  0.000E+00  0.000E+00  0.000E+00  0.000E+00  0.000E+00  0.000E+00  0.000E+00  1.000E+00  0.000E+00  0.000E+00  0.000E+00  0.000E+00  0.000E+00  0.000E+00  0.000E+00  0.000E+00  0.000E+00  0.000E+00
    0.000E+00  0.000E+00  0.000E+00  0.000E+00  0.000E+00  0.000E+00  0.000E+00  0.000E+00  0.000E+00  0.000E+00  0.000E+00  0.000E+00  0.000E+00  0.000E+00  0.000E+00  0.000E+00  0.000E+00  0.000E+00  0.000E+00  0.000E+00  1.000E+00  0.000E+00  0.000E+00  0.000E+00  0.000E+00  0.000E+00  0.000E+00  0.000E+00  0.000E+00  0.000E+00
    0.000E+00  0.000E+00  0.000E+00  0.000E+00  0.000E+00  0.000E+00  0.000E+00  0.000E+00  0.000E+00  0.000E+00  0.000E+00  0.000E+00  0.000E+00  0.000E+00  0.000E+00  0.000E+00  0.000E+00  0.000E+00  0.000E+00  0.000E+00  0.000E+00  1.000E+00  0.000E+00  0.000E+00  0.000E+00  0.000E+00  0.000E+00  0.000E+00  0.000E+00  0.000E+00
    0.000E+00  0.000E+00  0.000E+00  0.000E+00  0.000E+00  0.000E+00  0.000E+00  0.000E+00  0.000E+00  0.000E+00  0.000E+00  0.000E+00  0.000E+00  0.000E+00  0.000E+00  0.000E+00  0.000E+00  0.000E+00  0.000E+00  0.000E+00  0.000E+00  0.000E+00  1.000E+00  0.000E+00  0.000E+00  0.000E+00  0.000E+00  0.000E+00  0.000E+00  0.000E+00
    0.000E+00  0.000E+00  0.000E+00  0.000E+00  0.000E+00  0.000E+00  0.000E+00  0.000E+00  0.000E+00  0.000E+00  0.000E+00  0.000E+00  0.000E+00  0.000E+00  0.000E+00  0.000E+00  0.000E+00  0.000E+00  0.000E+00  0.000E+00  0.000E+00  0.000E+00  0.000E+00  1.000E+00  0.000E+00  0.000E+00  0.000E+00  0.000E+00  0.000E+00  0.000E+00
    0.000E+00  0.000E+00  0.000E+00  0.000E+00  0.000E+00  0.000E+00  0.000E+00  0.000E+00  0.000E+00  0.000E+00  0.000E+00  0.000E+00  0.000E+00  0.000E+00  0.000E+00  0.000E+00  0.000E+00  0.000E+00  0.000E+00  0.000E+00  0.000E+00  0.000E+00  0.000E+00  0.000E+00  1.000E+00  0.000E+00  0.000E+00  0.000E+00  0.000E+00  0.000E+00
    0.000E+00  0.000E+00  0.000E+00  0.000E+00  0.000E+00  0.000E+00  0.000E+00  0.000E+00  0.000E+00  0.000E+00  0.000E+00  0.000E+00  0.000E+00  0.000E+00  0.000E+00  0.000E+00  0.000E+00  0.000E+00  0.000E+00  0.000E+00  0.000E+00  0.000E+00  0.000E+00  0.000E+00  0.000E+00  1.000E+00  0.000E+00  0.000E+00  0.000E+00  0.000E+00
    0.000E+00  0.000E+00  0.000E+00  0.000E+00  0.000E+00  0.000E+00  0.000E+00  0.000E+00  0.000E+00  0.000E+00  0.000E+00  0.000E+00  0.000E+00  0.000E+00  0.000E+00  0.000E+00  0.000E+00  0.000E+00  0.000E+00  0.000E+00  0.000E+00  0.000E+00  0.000E+00  0.000E+00  0.000E+00  0.000E+00  1.000E+00  0.000E+00  0.000E+00  0.000E+00
    0.000E+00  0.000E+00  0.000E+00  0.000E+00  0.000E+00  0.000E+00  0.000E+00  0.000E+00  0.000E+00  0.000E+00  0.000E+00  0.000E+00  0.000E+00  0.000E+00  0.000E+00  0.000E+00  0.000E+00  0.000E+00  0.000E+00  0.000E+00  0.000E+00  0.000E+00  0.000E+00  0.000E+00  0.000E+00  0.000E+00  0.000E+00  1.000E+00  0.000E+00  0.000E+00
    0.000E+00  0.000E+00  0.000E+00  0.000E+00  0.000E+00  0.000E+00  0.000E+00  0.000E+00  0.000E+00  0.000E+00  0.000E+00  0.000E+00  0.000E+00  0.000E+00  0.000E+00  0.000E+00  0.000E+00  0.000E+00  0.000E+00  0.000E+00  0.000E+00  0.000E+00  0.000E+00  0.000E+00  0.000E+00  0.000E+00  0.000E+00  0.000E+00  1.000E+00  0.000E+00
    0.000E+00  0.000E+00  0.000E+00  0.000E+00  0.000E+00  0.000E+00  0.000E+00  0.000E+00  0.000E+00  0.000E+00  0.000E+00  0.000E+00  0.000E+00  0.000E+00  0.000E+00  0.000E+00  0.000E+00  0.000E+00  0.000E+00  0.000E+00  0.000E+00  0.000E+00  0.000E+00  0.000E+00  0.000E+00  0.000E+00  0.000E+00  0.000E+00  0.000E+00  1.000E+00
   -2.557E+00 -6.749E-04  1.859E+02  4.304E-02  3.353E-03 -5.528E+00  6.557E-02  5.517E-02  6.258E-02  3.892E-02  3.484E-02  1.126E-02 -3.228E-01 -2.805E-01 -3.183E-01 -5.218E-02 -1.614E-02  1.514E-01 -3.704E-01 -1.113E+00 -1.153E+00 -6.890E-03 -6.717E-03 -7.925E-03 -1.175E-03  6.488E-04  1.731E-04 -9.483E-03 -7.497E-03 -9.000E-03
    3.158E-03 -2.455E+00 -1.047E+01  1.935E+02 -2.301E-01 -2.118E-01  2.889E-02 -1.491E-02 -1.368E-02 -1.015E-01  6.942E-02  3.734E-02 -1.617E-01  8.544E-02  7.312E-02 -2.819E-02 -1.722E-02 -6.312E-01  2.427E-01 -2.385E-02 -2.372E-02 -6.270E-03  6.791E-03 -8.172E-04 -1.985E-03 -5.675E-03  7.611E-03 -6.340E-03  2.755E-04  5.975E-03
    1.313E-01 -4.671E-03 -1.444E+02 -7.942E-01  2.914E-02 -2.278E-01  3.963E-02 -2.346E-02 -7.547E-03  6.330E-02 -1.782E-02 -4.163E-02 -1.221E-01  7.046E-02  7.718E-03 -5.063E-03 -5.179E-04 -2.874E-01 -1.681E-02 -3.684E-02 -3.868E-02 -1.085E-03  1.012E-03 -9.208E-04 -1.051E-03  6.923E-04  3.212E-04 -3.036E-03  1.896E-03 -7.400E-05
   -9.714E-04  1.439E-01 -8.399E-01 -1.835E+02 -2.234E-02 -2.036E-02  3.344E-03  2.762E-03 -6.093E-03 -9.264E-03  1.347E-02 -3.729E-03 -1.685E-02 -4.177E-03  2.077E-02 -1.991E-03 -3.411E-04 -4.093E-02 -2.549E-01 -6.438E-03 -6.423E-03 -6.108E-04  4.836E-04  9.710E-05 -1.741E-04 -5.190E-04  6.926E-04 -6.210E-04 -2.072E-04  8.305E-04
    2.767E-04 -1.246E-02  4.432E-01  5.848E+01  1.080E-02  4.724E+02 -1.539E-03 -7.046E-04  2.234E-03  4.562E-03 -5.505E-03  7.071E-04  7.985E-03  1.513E-04 -7.999E-03  1.075E-03  3.639E-04  2.285E-02  8.162E-02  2.503E-03  3.386E+00  2.951E-04 -2.601E-04 -2.048E-05  8.703E-05  2.556E-04 -3.418E-04  2.997E-04  6.510E-05 -3.641E-04
   -1.890E-02  7.319E-05 -1.499E+00  1.201E-02  6.328E-04 -4.854E+02  3.489E-02  3.417E-02  3.440E-02 -1.405E-01 -1.426E-01 -1.429E-01 -1.087E-01 -1.041E-01 -1.056E-01 -2.730E-02 -1.005E-02 -6.686E-02 -2.272E-01 -6.734E-01 -4.151E+00 -3.837E-03 -3.983E-03 -3.748E-03 -7.950E-04 -7.649E-04 -7.173E-04 -3.272E-03 -3.337E-03 -3.106E-03
    5.274E+00  2.935E+00  8.183E+03  6.601E+02 -2.685E+00  1.281E+03 -1.806E+01 -2.052E+00 -3.045E+00  9.778E+00  1.434E+01  1.606E+01  4.437E+00  6.747E+00  1.081E+01 -2.860E+01 -1.066E+01 -4.250E+02 -1.457E+02 -3.481E+02 -3.389E+02 -7.897E+00  3.394E-01  4.469E-01 -1.310E+00  3.235E-02  4.123E-02 -2.896E+00  2.349E-01  3.297E-01
    4.892E+00 -1.677E+00 -4.880E+03  5.828E+02 -1.262E-01  1.235E+03 -1.981E+00 -1.555E+01 -3.532E+00  1.548E+01  1.337E+01  1.219E+01  6.232E+00 -1.422E+00  1.035E+01  4.347E+00 -4.886E+00  3.141E+02 -1.496E+02 -3.750E+02 -3.662E+02  3.254E-01 -8.083E+00  3.290E-01  4.547E-02 -1.299E+00  7.411E-02  2.097E-01 -3.095E+00  2.944E-01
    7.867E+00 -1.218E+00 -1.733E+03 -1.234E+03  1.104E+00  1.251E+03 -2.924E+00 -3.586E+00 -1.495E+01  1.385E+01  1.348E+01  1.401E+01  9.183E+00  1.114E+01 -2.819E+00 -8.478E+00 -3.013E-02  2.874E+01 -5.975E+01 -3.347E+02 -3.257E+02  3.546E-01  4.083E-01 -7.764E+00  5.904E-02  7.358E-02 -1.369E+00  2.807E-01  3.486E-01 -3.047E+00
    2.451E-01 -4.626E+00  5.462E+03 -7.750E+02 -2.259E+01 -2.175E+03  4.193E+00  6.533E+00  5.784E+00 -5.093E+01 -2.289E+01 -2.199E+01  9.285E-01 -1.934E+01 -1.654E+01 -6.771E+00 -2.397E+00 -2.914E+01 -4.796E+01 -1.160E+02 -1.314E+02 -7.780E-01 -6.679E-01 -5.578E-01 -2.526E-01 -1.761E-01 -1.138E-01 -3.262E-02 -6.152E-01 -4.645E-01
    1.472E+00  2.979E+00 -1.613E+03  1.141E+03  1.426E+01 -2.163E+03  5.970E+00  5.788E+00  5.667E+00 -2.277E+01 -4.873E+01 -2.423E+01 -1.825E+01 -3.454E+00 -1.741E+01 -2.991E+00 -1.684E+00  5.676E+01 -4.089E+01 -1.290E+02 -1.446E+02 -6.240E-01 -9.809E-01 -6.216E-01 -1.355E-01 -2.954E-01 -1.344E-01 -5.417E-01 -1.849E-01 -5.226E-01
    1.007E+00  1.817E+00 -3.547E+03 -3.346E+02  8.458E+00 -2.178E+03  6.668E+00  5.168E+00  5.870E+00 -2.198E+01 -2.424E+01 -4.931E+01 -2.065E+01 -1.574E+01 -4.318E+00 -7.827E+00 -1.343E+00 -6.597E+01 -3.360E+01 -1.145E+02 -1.302E+02 -6.587E-01 -6.430E-01 -7.610E-01 -1.536E-01 -1.099E-01 -2.739E-01 -6.065E-01 -5.118E-01 -1.885E-01
   -8.200E+00 -4.550E+00 -6.527E+03 -8.940E+02 -2.175E+01 -1.049E+03  1.822E+00  1.651E+00  2.456E+00 -2.335E-01 -1.123E+01 -1.277E+01 -1.270E+02 -5.556E+00 -8.905E+00 -1.591E+01 -7.114E+00 -2.706E+02 -1.254E+02 -3.645E+02 -3.718E+02 -8.262E+00 -2.548E-01 -3.773E-01 -9.505E-01 -4.904E-02  2.887E-03 -8.526E+00 -1.955E-01 -2.635E-01
   -1.024E+01  2.499E+00  3.735E+03 -2.356E+02  9.361E+00 -9.789E+02  1.735E+00  4.815E-01  2.889E+00 -1.198E+01 -3.124E+00 -9.750E+00 -5.592E+00 -1.195E+02 -8.737E+00  1.700E-02 -6.003E+00  9.573E+01 -1.438E+02 -3.589E+02 -3.660E+02 -2.780E-01 -8.304E+00 -2.642E-01 -1.755E-02 -8.409E-01 -8.555E-02 -1.806E-01 -8.501E+00 -2.541E-01
   -9.400E+00  1.978E+00  4.420E+02  1.115E+03  1.285E+01 -9.903E+02  2.782E+00  2.733E+00  5.181E-02 -1.026E+01 -1.082E+01 -3.061E+00 -8.907E+00 -8.766E+00 -1.183E+02  9.695E-01 -2.972E+00  1.327E+02 -9.718E+01 -3.695E+02 -3.767E+02 -2.913E-01 -3.390E-01 -7.991E+00 -7.549E-02 -3.138E-02 -8.569E-01 -2.663E-01 -2.714E-01 -8.072E+00
B: 30 x 9
    0.000E+00  0.000E+00  0.000E+00  0.000E+00  0.000E+00  0.000E+00  0.000E+00  0.000E+00  0.000E+00
    0.000E+00  0.000E+00  0.000E+00  0.000E+00  0.000E+00  0.000E+00  0.000E+00  0.000E+00  0.000E+00
    0.000E+00  0.000E+00  0.000E+00  0.000E+00  0.000E+00  0.000E+00  0.000E+00  0.000E+00  0.000E+00
    0.000E+00  0.000E+00  0.000E+00  0.000E+00  0.000E+00  0.000E+00  0.000E+00  0.000E+00  0.000E+00
    0.000E+00  0.000E+00  0.000E+00  0.000E+00  0.000E+00  0.000E+00  0.000E+00  0.000E+00  0.000E+00
    0.000E+00  0.000E+00  0.000E+00  0.000E+00  0.000E+00  0.000E+00  0.000E+00  0.000E+00  0.000E+00
    0.000E+00  0.000E+00  0.000E+00  0.000E+00  0.000E+00  0.000E+00  0.000E+00  0.000E+00  0.000E+00
    0.000E+00  0.000E+00  0.000E+00  0.000E+00  0.000E+00  0.000E+00  0.000E+00  0.000E+00  0.000E+00
    0.000E+00  0.000E+00  0.000E+00  0.000E+00  0.000E+00  0.000E+00  0.000E+00  0.000E+00  0.000E+00
    0.000E+00  0.000E+00  0.000E+00  0.000E+00  0.000E+00  0.000E+00  0.000E+00  0.000E+00  0.000E+00
    0.000E+00  0.000E+00  0.000E+00  0.000E+00  0.000E+00  0.000E+00  0.000E+00  0.000E+00  0.000E+00
    0.000E+00  0.000E+00  0.000E+00  0.000E+00  0.000E+00  0.000E+00  0.000E+00  0.000E+00  0.000E+00
    0.000E+00  0.000E+00  0.000E+00  0.000E+00  0.000E+00  0.000E+00  0.000E+00  0.000E+00  0.000E+00
    0.000E+00  0.000E+00  0.000E+00  0.000E+00  0.000E+00  0.000E+00  0.000E+00  0.000E+00  0.000E+00
    0.000E+00  0.000E+00  0.000E+00  0.000E+00  0.000E+00  0.000E+00  0.000E+00  0.000E+00  0.000E+00
    3.898E-02 -5.979E-02  1.044E-03 -8.622E-01 -9.799E-01 -4.630E-01  0.000E+00  1.886E-12 -2.305E+00
    1.466E-03  2.611E-01  1.641E-01 -6.360E-01  3.881E-01  1.764E-01  0.000E+00  3.574E-10 -7.157E-02
    1.639E-03  4.642E-02 -4.869E-03 -2.480E-01  2.338E-01 -5.388E-02  0.000E+00  8.933E-11 -6.808E-02
    2.747E-04  2.360E-02  1.555E-02 -6.184E-02  8.112E-04  2.079E-02  0.000E+00  1.202E-08 -4.024E-02
   -1.133E-04 -1.168E-02 -7.574E-03  2.991E-02 -5.916E-03 -9.499E-03  0.000E+00 -5.485E-07  1.449E-02
    2.551E-02 -4.322E-02  4.582E-03 -3.318E-01 -4.366E-01 -1.840E-01  0.000E+00  5.444E-07 -9.524E-01
    1.012E+01  1.758E+02  1.125E+02 -1.071E+03  3.107E+01  2.256E+01  0.000E+00 -6.211E-08 -1.017E+03
    1.003E+01 -1.616E+02 -4.326E+01  2.322E+01 -1.104E+03  1.578E+01  0.000E+00 -3.162E-08 -1.065E+03
    1.031E+01 -9.977E+01 -6.523E+01  2.904E+01  4.592E+01 -1.053E+03  0.000E+00  9.269E-08 -9.777E+02
    5.422E+00  5.737E+00  8.906E+00 -1.140E+02 -7.889E+01 -2.615E+01  0.000E+00  7.796E-08 -2.191E+02
    5.808E+00 -2.146E+01 -3.865E+00 -5.461E+01 -1.527E+02 -3.093E+01  0.000E+00 -9.517E-08 -2.382E+02
    5.408E+00 -1.214E+01 -2.361E+00 -6.022E+01 -6.749E+01 -9.775E+01  0.000E+00  1.410E-08 -2.255E+02
    4.712E+00  8.484E+01  4.446E+01 -6.595E+02 -2.525E+01 -1.847E+01  0.000E+00  8.675E-08 -7.032E+02
    4.056E+00 -1.097E+02 -5.713E+00 -1.981E+01 -6.757E+02 -1.346E+01  0.000E+00  3.177E-09 -7.090E+02
    4.946E+00 -7.035E+01 -3.412E+01 -2.654E+01 -3.635E+01 -5.883E+02  0.000E+00 -8.823E-08 -6.512E+02
C: 39 x 30
    0.000E+00  0.000E+00  0.000E+00  0.000E+00  0.000E+00  0.000E+00  0.000E+00  0.000E+00  0.000E+00  0.000E+00  0.000E+00  0.000E+00  0.000E+00  0.000E+00  0.000E+00  0.000E+00  0.000E+00  0.000E+00  0.000E+00  0.000E+00  0.000E+00  0.000E+00  0.000E+00  0.000E+00  0.000E+00  0.000E+00  0.000E+00  0.000E+00  0.000E+00  0.000E+00